# Reflection of Overdriven Detonation
# Calculation run on 2018-01-02
# Initial species mole fractions: H2:0.31 N2O:0.69
# Reaction mechanism: h2-n2o_highT.cti

# Initial conditions
# Temperature (K) 367.6
# Pressure (Pa) 245065.9
# Density (kg/m^3) 2.4851e+00
Zone T = rho11
Variables = "detonation speed (m/s)", "detonation pressure (Pa)", "detonation volume (m3/kg)", "reflected shock pressure (Pa)", "reflected shock volume (m3/kg)"
    2.11987e+03 	    5.27459e+06 	    2.21172e-01 	    1.29902e+07 	    1.03042e-01 
    2.23764e+03 	    7.72914e+06 	    1.60369e-01 	    2.56033e+07 	    5.90319e-02 
    2.35541e+03 	    9.29859e+06 	    1.38162e-01 	    3.52364e+07 	    4.59327e-02 
    2.47318e+03 	    1.08046e+07 	    1.22860e-01 	    4.55122e+07 	    3.78139e-02 
    2.59095e+03 	    1.23163e+07 	    1.11232e-01 	    5.67574e+07 	    3.21455e-02 
    2.70872e+03 	    1.38586e+07 	    1.01964e-01 	    6.91131e+07 	    2.79439e-02 
    2.82650e+03 	    1.54434e+07 	    9.43593e-02 	    8.26616e+07 	    2.47116e-02 
    2.94427e+03 	    1.70770e+07 	    8.79952e-02 	    9.74578e+07 	    2.21597e-02 
    3.06204e+03 	    1.87634e+07 	    8.25905e-02 	    1.13541e+08 	    2.01053e-02 
    3.17981e+03 	    2.05051e+07 	    7.79489e-02 	    1.30938e+08 	    1.84264e-02 
# Initial conditions
# Temperature (K) 418.7
# Pressure (Pa) 446592.3
# Density (kg/m^3) 3.9762e+00
Zone T = rho11
Variables = "detonation speed (m/s)", "detonation pressure (Pa)", "detonation volume (m3/kg)", "reflected shock pressure (Pa)", "reflected shock volume (m3/kg)"
    2.13262e+03 	    8.55005e+06 	    1.38801e-01 	    2.09439e+07 	    6.51184e-02 
    2.25110e+03 	    1.25176e+07 	    1.00830e-01 	    4.12065e+07 	    3.74362e-02 
    2.36958e+03 	    1.50540e+07 	    8.69484e-02 	    5.66620e+07 	    2.91804e-02 
    2.48806e+03 	    1.74878e+07 	    7.73795e-02 	    7.31342e+07 	    2.40580e-02 
    2.60654e+03 	    1.99307e+07 	    7.01052e-02 	    9.11468e+07 	    2.04782e-02 
    2.72502e+03 	    2.24231e+07 	    6.43066e-02 	    1.10922e+08 	    1.78228e-02 
    2.84350e+03 	    2.49839e+07 	    5.95484e-02 	    1.32589e+08 	    1.57784e-02 
    2.96197e+03 	    2.76237e+07 	    5.55659e-02 	    1.56233e+08 	    1.41630e-02 
    3.08045e+03 	    3.03487e+07 	    5.21837e-02 	    1.81914e+08 	    1.28615e-02 
    3.19893e+03 	    3.31631e+07 	    4.92789e-02 	    2.09670e+08 	    1.17969e-02 
# Initial conditions
# Temperature (K) 455.9
# Pressure (Pa) 668627.1
# Density (kg/m^3) 5.4673e+00
Zone T = rho11
Variables = "detonation speed (m/s)", "detonation pressure (Pa)", "detonation volume (m3/kg)", "reflected shock pressure (Pa)", "reflected shock volume (m3/kg)"
    2.14136e+03 	    1.18622e+07 	    1.01239e-01 	    2.89452e+07 	    4.77270e-02 
    2.26033e+03 	    1.73563e+07 	    7.36339e-02 	    5.68827e+07 	    2.75003e-02 
    2.37929e+03 	    2.08677e+07 	    6.35366e-02 	    7.81722e+07 	    2.14604e-02 
    2.49825e+03 	    2.42371e+07 	    5.65740e-02 	    1.00849e+08 	    1.77101e-02 
    2.61722e+03 	    2.76191e+07 	    5.12799e-02 	    1.25634e+08 	    1.50875e-02 
    2.73618e+03 	    3.10694e+07 	    4.70592e-02 	    1.52828e+08 	    1.31410e-02 
    2.85515e+03 	    3.46145e+07 	    4.35954e-02 	    1.82609e+08 	    1.16415e-02 
    2.97411e+03 	    3.82687e+07 	    4.06962e-02 	    2.15090e+08 	    1.04560e-02 
    3.09308e+03 	    4.20411e+07 	    3.82338e-02 	    2.50349e+08 	    9.50028e-03 
    3.21204e+03 	    4.59370e+07 	    3.61190e-02 	    2.88439e+08 	    8.71806e-03 
# Initial conditions
# Temperature (K) 485.5
# Pressure (Pa) 906306.1
# Density (kg/m^3) 6.9584e+00
Zone T = rho11
Variables = "detonation speed (m/s)", "detonation pressure (Pa)", "detonation volume (m3/kg)", "reflected shock pressure (Pa)", "reflected shock volume (m3/kg)"
    2.14805e+03 	    1.52029e+07 	    7.97193e-02 	    3.69863e+07 	    3.77204e-02 
    2.26738e+03 	    2.22323e+07 	    5.80389e-02 	    7.26123e+07 	    2.17732e-02 
    2.38672e+03 	    2.67248e+07 	    5.01039e-02 	    9.97445e+07 	    1.70057e-02 
    2.50606e+03 	    3.10355e+07 	    4.46308e-02 	    1.28633e+08 	    1.40436e-02 
    2.62539e+03 	    3.53623e+07 	    4.04687e-02 	    1.60192e+08 	    1.19712e-02 
    2.74473e+03 	    3.97764e+07 	    3.71500e-02 	    1.94807e+08 	    1.04323e-02 
    2.86406e+03 	    4.43117e+07 	    3.44263e-02 	    2.32699e+08 	    9.24635e-03 
    2.98340e+03 	    4.89867e+07 	    3.21464e-02 	    2.74009e+08 	    8.30827e-03 
    3.10274e+03 	    5.38127e+07 	    3.02100e-02 	    3.18835e+08 	    7.55167e-03 
    3.22207e+03 	    5.87967e+07 	    2.85469e-02 	    3.67241e+08 	    6.93209e-03 
# Initial conditions
# Temperature (K) 510.3
# Pressure (Pa) 1156762.2
# Density (kg/m^3) 8.4495e+00
Zone T = rho11
Variables = "detonation speed (m/s)", "detonation pressure (Pa)", "detonation volume (m3/kg)", "reflected shock pressure (Pa)", "reflected shock volume (m3/kg)"
    2.15348e+03 	    1.85640e+07 	    6.57745e-02 	    4.50482e+07 	    3.12176e-02 
    2.27312e+03 	    2.71382e+07 	    4.79202e-02 	    8.83842e+07 	    1.80424e-02 
    2.39276e+03 	    3.26166e+07 	    4.13843e-02 	    1.21366e+08 	    1.41011e-02 
    2.51239e+03 	    3.78732e+07 	    3.68752e-02 	    1.56471e+08 	    1.16513e-02 
    2.63203e+03 	    4.31494e+07 	    3.34458e-02 	    1.94809e+08 	    9.93653e-03 
    2.75167e+03 	    4.85320e+07 	    3.07110e-02 	    2.36845e+08 	    8.66279e-03 
    2.87131e+03 	    5.40624e+07 	    2.84664e-02 	    2.82845e+08 	    7.68074e-03 
    2.99095e+03 	    5.97631e+07 	    2.65875e-02 	    3.32979e+08 	    6.90367e-03 
    3.11058e+03 	    6.56478e+07 	    2.49915e-02 	    3.87363e+08 	    6.27668e-03 
    3.23022e+03 	    7.17252e+07 	    2.36207e-02 	    4.46071e+08 	    5.76304e-03 
# Initial conditions
# Temperature (K) 531.8
# Pressure (Pa) 1418082.0
# Density (kg/m^3) 9.9405e+00
Zone T = rho11
Variables = "detonation speed (m/s)", "detonation pressure (Pa)", "detonation volume (m3/kg)", "reflected shock pressure (Pa)", "reflected shock volume (m3/kg)"
    2.15807e+03 	    2.19454e+07 	    5.59934e-02 	    5.31410e+07 	    2.66426e-02 
    2.27796e+03 	    3.20693e+07 	    4.08209e-02 	    1.04192e+08 	    1.54161e-02 
    2.39785e+03 	    3.85376e+07 	    3.52644e-02 	    1.43029e+08 	    1.20552e-02 
    2.51775e+03 	    4.47440e+07 	    3.14303e-02 	    1.84354e+08 	    9.96514e-03 
    2.63764e+03 	    5.09735e+07 	    2.85139e-02 	    2.29474e+08 	    8.50174e-03 
    2.75753e+03 	    5.73285e+07 	    2.61880e-02 	    2.78932e+08 	    7.41435e-03 
    2.87742e+03 	    6.38579e+07 	    2.42789e-02 	    3.33039e+08 	    6.57570e-03 
    2.99732e+03 	    7.05884e+07 	    2.26807e-02 	    3.91993e+08 	    5.91187e-03 
    3.11721e+03 	    7.75361e+07 	    2.13232e-02 	    4.55928e+08 	    5.37607e-03 
    3.23710e+03 	    8.47114e+07 	    2.01572e-02 	    5.24929e+08 	    4.93697e-03 
